<?xml version="1.0" encoding="UTF-8"?>

<configuration xmlns:xsi="http://www.w3.org/2001/XMLSchema-instance" xsi:noNamespaceSchemaLocation="http://sumo.sf.net/xsd/sumoConfiguration.xsd">

    <input>
        <net-file value="/home/pierpaolo/Scrivania/scriptMirco/scriptMirco/facilitatore/v0.4/v0.4/net/Madrid3/Madrid3.net.xml"/>
        <route-files value="/home/pierpaolo/Scrivania/scriptMirco/scriptMirco/facilitatore/v0.4/v0.4/rou/Madrid3/Madrid3.rou.xml"/>
        <additional-files value="/home/pierpaolo/Scrivania/scriptMirco/scriptMirco/facilitatore/v0.4/v0.4/simu/Madrid3/edgeDetector.xml /home/pierpaolo/Scrivania/scriptMirco/scriptMirco/facilitatore/v0.4/v0.4/net/Madrid3/Madrid3.poly.xml"/>
    </input>

    <output>
        <summary-output value="/home/pierpaolo/Scrivania/scriptMirco/scriptMirco/facilitatore/v0.4/v0.4/simu/Madrid3/summary.xml"/>
    </output>

    <time>
        <end value="1000"/>
    </time>

    <processing>
        <time-to-teleport value="-2"/>
        <max-depart-delay value="0"/>
    </processing>

    <report>
        <verbose value="true"/>
        <no-warnings value="true"/>
        <error-log value="/home/pierpaolo/Scrivania/scriptMirco/scriptMirco/facilitatore/v0.4/v0.4/simu/Madrid3/warnings_and_errors.log"/>
    </report>

</configuration>
